ITEM: TIMESTEP
     1902000
ITEM: NUMBER OF ATOMS
         493
ITEM: BOX BOUNDS pp pp pp
      0.0000000    600.0000000
      0.0000000    600.0000000
      0.0000000    600.0000000
ITEM: ATOMS id type id x y z
         1         4         1     13.4081841    587.6214600      5.5329995
         2         4         2    563.4572754      3.0601296     67.8793716
         3         4         3    557.2169189     24.8359108    508.9717407
         4         4         4      8.8261528    515.2686157    562.7288208
         5         4         5     36.3794975     27.9431686    534.9435425
         6         4         6    525.8235474    582.2992554    598.4133911
         7         4         7    103.4068985    521.0717773     37.6019211
         8         4         8    126.5172806     42.2486115    563.5983887
         9         4         9    574.5769653     60.5150185    580.9324341
        10         4        10    103.1058426    568.0001831    106.1740799
        11         4        11     86.8612442     15.3568144     35.0557861
        12         4        12    235.3795929    574.4390869     21.7650566
        13         4        13    213.8657684    558.6124878    528.0867310
        14         4        14    224.9245453     27.7122612     85.5361633
        15         4        15    297.9381104     18.4938526     45.5171509
        16         4        16    293.4377441    575.0612183    563.1262207
        17         4        17    329.9862061    146.9544525    119.0334320
        18         4        18    212.3927917     98.6714859    142.7464752
        19         4        19    378.5116577     14.5626688     44.9928017
        20         4        20    374.8906250    552.0306396    591.6979370
        21         4        21    420.4490356     19.9137115    541.4890747
        22         4        22    354.9792480    550.5474243     93.0267410
        23         4        23    434.6704102     98.5186920    530.5808105
        24         4        24    408.4268799    516.5747070    529.0081787
        25         4        25    513.5251465    572.1366577    465.1051941
        26         4        26    442.4635925    591.1411743     11.6975403
        27         4        27    481.4232178    579.4872437    540.8045044
        28         4        28     81.4185181     53.6736984    401.6549988
        29         4        29    485.1084595    428.0209656     13.9679413
        30         4        30    478.1732483     38.3648758    495.1492615
        31         4        31     81.5824890    560.7678223    567.5215454
        32         4        32    207.6496887     31.2206573    571.5399780
        33         4        33    277.0277405     67.1434631    579.3602905
        34         4        34    164.1378937    580.3537598     55.9912491
        35         4        35    292.3320007     73.5808029    117.1187515
        36         4        36    353.9329529     39.5472260    574.9250488
        37         4        37    289.2811890    586.4487915    120.2454987
        38         4        38    329.3067627     94.3295288     43.7083817
        39         4        39    278.2438354    148.6950989    574.3122559
        40         4        40    402.5544128     49.6068687    468.8882446
        41         4        41    420.5145569    517.7587891     62.4952736
        42         4        42    490.5260620    571.1136475     70.6243591
        43         4        43    488.2755737     54.6538277    579.4926147
        44         4        44    531.5270386     79.2902527     48.5643768
        45         4        45     30.2299385    547.7891235     82.6121368
        46         4        46    144.6111145     51.0191002     99.2136383
        47         4        47    243.7836151    101.0711594     52.3696976
        48         4        48     99.9052353     53.6711044    486.6271057
        49         4        49    328.2894592     77.2919006    499.9644470
        50         4        50    144.8528748    500.9395447    539.0101929
        51         4        51    414.3614502     82.6501083     12.6957731
        52         4        52    431.0510254    571.4901123    475.9195557
        53         4        53    585.0133057      2.5753684    432.4337463
        54         4        54    125.4030762    244.5182953     21.5699196
        55         4        55    450.9321289     43.9861221     71.3479004
        56         4        56    465.8421021    515.9575806    589.7163086
        57         4        57     11.9064770     55.4334755     50.4914169
        58         4        58     62.6136856    591.0037842    460.3601990
        59         4        59     50.7349625     87.1793747    594.8308105
        60         4        60    296.1131897    114.5403137    426.6972961
        61         4        61    348.1994629    588.3867188    503.6194458
        62         4        62    490.3925171    509.6962585    511.8598938
        63         4        63    581.7916260    595.0292969    142.5362396
        64         4        64      1.2934328    129.8804321     47.4118462
        65         4        65     45.0866241     26.7570381    112.1435318
        66         4        66     78.3194733     94.3159103     78.1310120
        67         4        67    264.0814514     26.5220337    509.3907776
        68         4        68    360.0399780    122.7785263    563.9999390
        69         4        69    527.3098145    158.5439301     51.9307251
        70         4        70    248.3217773    115.3692932    505.7570801
        71         4        71    569.1476440    523.6609497     31.8731003
        72         4        72    125.2299881    108.0617676     11.6935120
        73         4        73    238.1519775    170.8647919    106.0748825
        74         4        74    402.6531372    170.5696869    513.9825439
        75         4        75     17.8282280    172.8040619    578.4246216
        76         4        76    545.3203735    551.6090698    536.1688232
        77         4        77    157.3193207    117.9286499    508.4619446
        78         4        78     81.8865204    265.4959717     95.5024567
        79         4        79    182.4891052     41.5071754    495.0912781
        80         4        80    342.9312439    220.8653412    103.1474380
        81         4        81    380.2899780    124.4991837    445.1339722
        82         4        82    439.7368469     53.1886826    154.1369476
        83         4        83    323.0256653    160.9853058    495.7934875
        84         4        84    531.6483154    208.3493347    580.1074829
        85         4        85     24.1529598     65.6105881    458.0333862
        86         4        86     80.8090363    172.6508026     32.3681946
        87         4        87     12.5903149    108.0085297    522.6128540
        88         4        88    202.4063873    108.7632217    580.4539795
        89         4        89    365.2005005    293.8491821    113.2015076
        90         4        90    207.9332733    182.5878448     26.3845654
        91         4        91    300.4077454    174.6838837     48.6280746
        92         4        92    394.1401978     98.8382568     98.4587021
        93         4        93    383.5856018    169.3745575     48.7008171
        94         4        94    463.2191162    198.6411591     30.0248508
        95         4        95    526.9277954     98.1306000    520.1703491
        96         4        96    163.2330933    132.1916046     79.2662964
        97         4        97    362.9097595     23.2405376    123.5188751
        98         4        98     82.8335495    135.4912872    541.9530029
        99         4        99    481.8576965    136.3373871    583.6659546
       100         4       100    566.7863770    172.0809174    510.8232727
       101         4       101    114.8119659    515.0275879    165.8903656
       102         4       102    270.3721313    244.7745209     85.1318436
       103         4       103    409.4168396    319.0014343     48.1682701
       104         4       104     22.7890396    215.6447296     94.2012177
       105         4       105     50.1221809    302.9529114    554.3759155
       106         4       106    334.0184326    261.1820679     37.0076256
       107         4       107    402.4096985    189.9393616    127.5692291
       108         4       108     82.4098206    224.9586792    556.9760132
       109         4       109    127.7973938    279.3371582    515.1898804
       110         4       110    172.1998901     54.0732651     33.7626038
       111         4       111    455.9068298    235.4797363    551.7098999
       112         4       112      3.3700836    142.9086914    438.1889343
       113         4       113    276.3397827    194.0106049    428.7062378
       114         4       114    477.2915955    184.6792755    110.1546631
       115         4       115    478.4002686    286.9680176     17.4166851
       116         4       116    597.3602295    242.7811890    539.7385254
       117         4       117    459.5808411    124.9515839     61.3253555
       118         4       118    400.7144470    307.5508728    563.4804077
       119         4       119    531.6519775    232.4055176     72.3270569
       120         4       120    166.0159760    306.2773743    585.7063599
       121         4       121    317.4461975    253.7668152    468.8448486
       122         4       122    268.7093811    230.1214294    599.0564575
       123         4       123    343.9906616    201.1287384    572.4583130
       124         4       124    566.3217163    283.4987488      5.8346438
       125         4       125     86.5526581    319.9122620     21.0368671
       126         4       126    142.1031036    172.8005829    573.9415894
       127         4       127    188.0591278    233.6845093    558.8799438
       128         4       128    159.7050629    222.4316101     90.1227493
       129         4       129    260.9432373    211.0695953    518.0609131
       130         4       130    437.4616089    253.2227173     82.9522552
       131         4       131     42.3668442    187.9294739    497.6593018
       132         4       132    586.4014893    227.5746765    444.4267883
       133         4       133     67.3695679    201.6986084    424.3989258
       134         4       134    461.8828125    107.8206100    456.9627686
       135         4       135    562.8771362    165.6342926    119.9842682
       136         4       136     41.7735291    335.6155396    106.7710419
       137         4       137    209.9834595    197.1296082    388.2758789
       138         4       138    402.5999146    243.5749969      9.8553934
       139         4       139    144.5546417    307.4187622     78.4170151
       140         4       140    227.2640991    366.5872192     60.1832314
       141         4       141    318.2189636    276.6121521    552.0780640
       142         4       142    359.6690369    327.1574402    490.4494324
       143         4       143    470.9382629    364.2115173     63.4534569
       144         4       144    585.0198364    291.0634460     81.6693039
       145         4       145    207.1473846    264.0571899     40.2447701
       146         4       146    341.8268127    338.6849365      9.9857817
       147         4       147    387.0113525    251.0847168    508.7444763
       148         4       148    509.0845947    357.8299255    480.3656921
       149         4       149    518.2069092    305.7388000    542.4570923
       150         4       150    458.5406494    342.1406555    417.2886047
       151         4       151    515.2498169    285.9776306    440.0703125
       152         4       152     38.2294807    250.5849609     20.9254456
       153         4       153    450.9666748    300.6005859    493.0042114
       154         4       154    483.0950623    168.7743530    508.7022095
       155         4       155    258.2002869    311.3432312    474.7569275
       156         4       156    529.9095459    353.4366760      9.0367498
       157         4       157    112.7384949    355.3555908    549.2338867
       158         4       158    185.9167480    333.3070374    509.3087158
       159         4       159     46.8398666    360.4458313    494.6750793
       160         4       160    414.0031433    363.1728516    123.2237167
       161         4       161    572.2521973    421.6395874     22.1164474
       162         4       162     12.2990294    344.8533020     30.4716816
       163         4       163    587.9450073    356.0452881    551.8093262
       164         4       164    237.2543182    290.8114319    548.2437744
       165         4       165    170.9970398    408.5341492    532.6425171
       166         4       166    266.7811584    308.4106750     13.3889914
       167         4       167    299.6656799    329.2655334     80.4316483
       168         4       168    369.3329773    394.9271240    557.9401855
       169         4       169    525.5557861    238.9798279    503.2791443
       170         4       170    149.3352356    374.8066406     28.6098843
       171         4       171    297.5040894    354.2608643    538.2685547
       172         4       172     39.9649162    275.9801941    166.3222351
       173         4       173     71.2952881    403.3122253      6.8113146
       174         4       174    502.9031372    303.7199097    107.0658798
       175         4       175    555.1681519    366.7024841     84.4782181
       176         4       176    163.2417145    378.6001892    111.1782455
       177         4       177    225.0179443    362.6116333    572.7785645
       178         4       178    334.5753784    361.2378540    145.3972931
       179         4       179    415.7937927    396.5409851     16.6665726
       180         4       180     34.5018578    476.0241699     41.1280289
       181         4       181     95.0954666    428.5844727    531.5743408
       182         4       182    289.4682007    436.8845825    543.8177490
       183         4       183    461.7090149    361.4584656    565.0234375
       184         4       184    564.7561646    243.4830017    154.5070648
       185         4       185     15.0641413    432.4531555    549.7836304
       186         4       186     95.0612259    373.5849915     80.0257263
       187         4       187    222.5282745    477.8742676    509.0351257
       188         4       188    239.3283386    394.2179871    490.4034729
       189         4       189    359.2493896    389.3458252     67.2193527
       190         4       190    293.5808716    401.1248779     16.9278946
       191         4       191    515.0301514    174.1070251    186.6376343
       192         4       192    502.9554749    491.6304626     57.9399033
       193         4       193     43.9489212    441.9371643    473.1485291
       194         4       194    159.4615631    277.1596680    148.6996765
       195         4       195     72.4031219    511.8937988    502.7319031
       196         4       196    162.0198212    505.7639465     96.5880966
       197         4       197    258.4478760    478.9831848     54.9740295
       198         4       198    306.7206421    540.1287842     37.4897232
       199         4       199    217.9579926    302.9681702    110.2373199
       200         4       200    504.4516907    373.6349182    151.0325623
       201         4       201    505.0264282    426.2504883     92.1128845
       202         4       202    528.1295776    408.5986633    543.0311890
       203         4       203    126.9005737    376.5758667    475.0348816
       204         4       204    140.7292480    450.4849548      0.7889324
       205         4       205    221.9141235    441.5924683    591.7326660
       206         4       206    346.7665405    473.4541321     70.0843430
       207         4       207    290.6696472    501.1897888    138.0536041
       208         4       208    397.1769104    468.6211853    593.7482300
       209         4       209    454.3118286    442.9872131    538.5115967
       210         4       210    537.4717407    482.3452454    572.2589722
       211         4       211    245.5870514    367.5213623    151.0648346
       212         4       212    370.9642944    447.9486084    495.6352234
       213         4       213    429.4070129    380.2734985    489.0820313
       214         4       214    114.6319351    442.5149231     77.3983536
       215         4       215    548.1555176    531.9243164    114.7094727
       216         4       216    253.7982483    511.5176697    578.0814209
       217         4       217    332.3119507    510.6609802    538.1191406
       218         4       218    389.3987427    497.4611511    139.6533813
       219         4       219    577.9658813    462.2461548     94.2094040
       220         4       220     73.1139450    480.6950989    577.5261841
       221         4       221    290.2380371    457.7405090    465.4049072
       222         4       222     55.9430275    476.3427734    124.9267883
       223         4       223    423.7846375    438.4811096     82.4115829
       224         4       224    159.7823944    570.9245605    580.4490356
       225         4       225    186.9122314    511.8539124     14.6554232
       226         4       226    152.5896454    446.6534424    158.2514801
       227         4       227    319.2159424    476.6583252      2.3162081
       228         4       228    430.4956970    575.3509521    119.4258118
       229         4       229    229.1122131    448.9845581    139.4999847
       230         4       230    391.3829041    500.4296265    383.3930054
       231         4       231    169.8293610    586.9583740    139.3273773
       232         4       232     31.8539753    407.7501831     80.9318237
       233         4       233    228.5762024    544.3559570     98.8266220
       234         4       234    513.6392822     34.3692131    120.7913589
       235         4       235    581.7387695     82.5947723    117.7872086
       236         4       236    438.4285583    490.0047607    454.8976135
       237         4       237    102.0588913     26.2619171    163.1240082
       238         4       238     84.5093079    128.6161194    458.0660706
       239         4       239    226.2465363    159.4636688    204.9461212
       240         4       240    122.6496429    195.2805328    491.4483948
       241         4       241    203.3366699    170.5870361    461.5295410
       242         4       242    288.8977051    207.3969269    162.1489868
       243         4       243     53.8663979    264.0618591    479.6716003
       244         4       244    238.6838379    238.6088257    223.8592682
       245         4       245    403.2226563    280.3237305    429.3302307
       246         4       246    318.0739746    317.7070618    418.0423889
       247         4       247    576.8993530    397.6182251    483.2397461
       248         4       248    109.4892426    331.6773376    152.7767639
       249         4       249     82.3185120    452.1252441    403.7621155
       250         4       250    199.2890015    254.5234222    478.4485474
       251         4       251    588.6686401    407.0671692    154.5889282
       252         4       252    523.3770752    455.6775208    164.2040405
       253         4       253    292.1779175    416.4710693     97.5260391
       254         4       254     84.0256500    405.4604492    142.9731293
       255         4       255    174.0272369    525.7877197    467.5799561
       256         4       256    498.4744873    575.5349731    170.7083740
       257         4       257    192.5525513    438.1756897     70.4579315
       258         4       258    200.0171204    516.4164429    170.1671295
       259         4       259    469.0957031    502.6250610    130.5209961
       260         4       260     30.3894005     38.7935829    186.6036987
       261         4       261    291.1622009    116.4461136    185.3177185
       262         4       262    433.9217834    135.5603790    169.9430847
       263         4       263    501.6429749    112.5610504    128.3469391
       264         4       264    490.0603333    241.2789917    152.3368378
       265         4       265    595.1458130    500.8164978    173.7814331
       266         4       266    166.0124969    170.4821625    155.6237335
       267         4       267    129.7228394    102.4960709    148.3121948
       268         4       268    359.4051819     63.5670891    398.8660889
       269         4       269    459.3960571    158.3363800    249.0127411
       270         4       270    212.3496246    234.9643555    147.4617462
       271         4       271    580.1898193    308.9723511    486.4829407
       272         4       272    154.1861725    229.4348145    209.5685425
       273         4       273    292.2499390    289.4853210    156.2630157
       274         4       274    128.8738403    307.6765137    224.4780731
       275         4       275    208.5659637    307.0148621    195.5851898
       276         4       276    377.7007751    203.9316254    443.8910522
       277         4       277    583.1669922    437.6509094    418.5695496
       278         4       278    134.3586731    457.2085876    467.5153503
       279         4       279    265.9281311    561.3588867    206.0873413
       280         4       280     48.1387634    442.8153992    205.2380219
       281         4       281    129.6974335    576.6639404    503.8907471
       282         4       282    569.2075195    480.8612366    496.0014343
       283         4       283    164.7032776    469.3767700    395.5871277
       284         4       284    426.6812439    541.2200317    196.9809113
       285         4       285    233.3991699     22.3591709    167.0497437
       286         4       286     65.2367935      2.3094919    255.9330139
       287         4       287    357.4692688    170.5935364    190.2570648
       288         4       288    165.3806152    239.4712982    348.8723755
       289         4       289     96.3525238    175.5652313    116.4893036
       290         4       290    508.6017456    303.8627625    193.6546631
       291         4       291    575.6878662    325.3816833    151.4909973
       292         4       292    431.4599915    288.4956055    158.7435608
       293         4       293    299.5261230    427.1040039    178.2481537
       294         4       294    344.6390991    551.2950439    177.2661743
       295         4       295    365.0523987     90.7093506    172.9115601
       296         4       296    581.2998657    281.7012634    225.8058472
       297         4       297     29.2600060    188.6435547    171.6484985
       298         4       298    495.3408813     92.8507004    204.2231598
       299         4       299     51.0408897    107.1765747    160.2029266
       300         4       300    290.8242798    346.9263611    215.4371948
       301         4       301    450.3271790    473.2701721    236.2876587
       302         4       302    439.6328125    432.5653687    167.4219666
       303         4       303    306.8158264     30.8279438    191.6922607
       304         4       304    210.8093872      1.6442314    241.8450470
       305         4       305    578.7237549    542.7991333    370.7265625
       306         4       306    551.3884277     41.4358635    194.7951508
       307         4       307    282.5601807    538.3925781    480.9236755
       308         4       308    360.7219849    244.9269409    176.1917877
       309         4       309    170.5079651    372.2239990    189.7758026
       310         4       310    405.5061951    363.8052979    279.1610413
       311         4       311    501.4122620    433.9442444    466.3993530
       312         4       312    360.2865295    520.9821777    461.4841309
       313         4       313    141.3883820      8.7681408    429.1203613
       314         4       314     51.4749222    562.3423462    163.5998077
       315         4       315      0.5969130     65.2757492    260.1403809
       316         4       316    138.1841888    574.8405762    214.3156281
       317         4       317    525.5653076    517.4687500    218.6117401
       318         4       318    463.7177734     17.4916592    227.0965271
       319         4       319     67.9452591     61.3755569    318.3538818
       320         4       320    440.7430115    280.5178528    237.8379822
       321         4       321    519.2608032    270.0330811    311.5355530
       322         4       322    370.6318359    321.4788208    210.4974823
       323         4       323    444.3152161    356.3447266    204.4089355
       324         4       324    566.2243042    361.8779297    223.6051636
       325         4       325    100.8345108    386.3394470    234.7058411
       326         4       326    370.6447449    401.3370667    207.2613068
       327         4       327     54.3277588    318.0919800    255.0243073
       328         4       328    352.0192566    476.5394897    207.4065094
       329         4       329     40.5740776    356.0238953    186.6685638
       330         4       330     53.0738678    522.6707764    233.6748047
       331         4       331    166.0529785     49.4017792    200.2915039
       332         4       332    235.9039307     76.2765656    224.0250092
       333         4       333     89.9818192     80.3471985    229.1548767
       334         4       334    578.6498413    121.6286850    191.9670105
       335         4       335    125.3606720    440.2640076    338.2387390
       336         4       336    497.9472351    410.0809631    226.2515106
       337         4       337     25.5244141    394.5769043    274.1254883
       338         4       338    327.9247742    463.2236023    335.6200256
       339         4       339    388.6304932     11.5764866    200.1281586
       340         4       340    360.3610229    138.0985565    259.9047241
       341         4       341    247.3691864    242.2071686    326.2722168
       342         4       342     67.9269409    239.7865753    230.4839935
       343         4       343    362.1493225    428.1248779    134.3389435
       344         4       344    264.2990723    543.2958374    289.3768921
       345         4       345    165.0965424    123.5959930    244.9972229
       346         4       346     12.1723070    253.3650513    303.8127136
       347         4       347    100.2867966    166.4736938    206.4761200
       348         4       348    385.9402771    446.0450134    271.1914368
       349         4       349    138.5200195    199.8993988    281.2436218
       350         4       350    250.5128326    305.9564514    274.7651367
       351         4       351    259.9053650    483.1617432    213.7661591
       352         4       352    418.4385681     83.9853897    235.3711548
       353         4       353    296.4302673    185.3214569    240.2020874
       354         4       354    434.4270935    211.3520813    192.2033234
       355         4       355    386.1753235    212.0586853    246.8614349
       356         4       356    328.5196533    340.8292236    288.2943420
       357         4       357    233.6533356    408.0281067    228.4109192
       358         4       358    118.6251068    364.3188171    309.8669128
       359         4       359    249.4630432    461.8157349    297.4386902
       360         4       360    125.2378006    477.5562134    234.0406342
       361         4       361    568.4099121    444.2427063    229.9782867
       362         4       362    471.8097229    408.7417908    311.9577026
       363         4       363    329.5004272    578.6316528    253.3361511
       364         4       364     32.9043884    136.8710480    241.2023773
       365         4       365    478.7078552     83.3834229    285.9254150
       366         4       366    545.2579956     74.3209457    323.6997375
       367         4       367    180.2239227    271.1696167    276.7292175
       368         4       368    313.0884705    418.3811340    260.7180176
       369         4       369    143.7128906     38.6892853    280.2572632
       370         4       370    123.1284027    546.6231689    284.3584290
       371         4       371    316.7450562    497.3646240    269.5248718
       372         4       372    531.4368896      8.7695751    273.4164429
       373         4       373    591.8096924    574.8604736    221.0064087
       374         4       374      0.4326014      8.8539743    324.4325867
       375         4       375    192.2185669    525.0064087    247.2581482
       376         4       376    404.7994995      8.8394718    275.5626831
       377         4       377    314.1346741    265.7541199    242.3895874
       378         4       378    219.5007782    178.8228149    284.3172302
       379         4       379     48.2479286    192.3035583    284.9524536
       380         4       380    508.2715149    232.4274292    244.3397675
       381         4       381    543.6563721    400.1713562    285.2908936
       382         4       382    172.4006958    428.0554199    275.3330078
       383         4       383    511.1968384    472.1211853    288.1449280
       384         4       384    335.8453369    202.9939117    311.4898682
       385         4       385    495.6033630    339.0907898    268.7831726
       386         4       386    576.3756104    329.8613892    298.9653625
       387         4       387    566.1859131    531.0246582    289.2575684
       388         4       388    193.4015045    576.9486084    314.7475281
       389         4       389    467.4317627    548.7006836    270.7542114
       390         4       390    269.3941956     28.8226681    287.5756531
       391         4       391     97.5750122    133.6994019    295.7543030